 VARIABLES = X,Y,DU1,DU2,U1,U2,S11,S22,S33,S12
 ZONE, T="  0.1000D+01" F=FEPOINT, I=  974 J= 1828
   0.3707621276E-01   0.1124015610E+00   0.1977416431E-04  -0.3373502084E-04   0.0000000000E+00   0.0000000000E+00   0.5302156443E-01   0.6515769585E-02   0.1786120021E-01  -0.5194012075E-02
   0.1952464392E-01   0.9804539337E-01   0.1561151710E-04  -0.3313323320E-04   0.0000000000E+00   0.0000000000E+00   0.7886353638E-01   0.4241030232E-02   0.2493136998E-01  -0.1382331094E-01
   0.3829888089E-01   0.9235736589E-01   0.3053828579E-04  -0.3058600769E-04   0.0000000000E+00   0.0000000000E+00   0.5741590236E-01   0.9717745554E-02   0.2014009437E-01  -0.2236142088E-01
   0.2830078667E-01   0.1052229176E+00   0.1805116697E-04  -0.3399738938E-04   0.0000000000E+00   0.0000000000E+00   0.6215524863E-01   0.4768044112E-02   0.2007698782E-01  -0.1004578535E-01
   0.2905168501E-01   0.9566207346E-01   0.2321720616E-04  -0.3196183666E-04   0.0000000000E+00   0.0000000000E+00   0.7210133340E-01   0.8198614206E-02   0.2408998428E-01  -0.2034783856E-01
   0.3768657205E-01   0.1023794952E+00   0.2418145377E-04  -0.3213275284E-04   0.0000000000E+00   0.0000000000E+00   0.5420628761E-01   0.6833005020E-02   0.1831178779E-01  -0.1288271681E-01
   0.1069359924E+00   0.2330851893E+00   0.2615143220E-04  -0.3560966709E-04   0.0000000000E+00   0.0000000000E+00   0.3148626337E-01  -0.1635883598E-03   0.9396802502E-02   0.1822141900E-02
   0.9724293064E-01   0.2499605447E+00   0.2070674197E-04  -0.3945529608E-04   0.0000000000E+00   0.0000000000E+00   0.3009335250E-01   0.2487821839E-04   0.9035469214E-02   0.8977010492E-04
   0.8738986876E-01   0.2329868129E+00   0.2070246107E-04  -0.3930411625E-04   0.0000000000E+00   0.0000000000E+00   0.2977683626E-01  -0.8107103336E-04   0.8908729568E-02   0.2129564578E-02
   0.1020895273E+00   0.2415228445E+00   0.2349425085E-04  -0.3755551040E-04   0.0000000000E+00   0.0000000000E+00   0.3076996655E-01  -0.6355078555E-04   0.9211924731E-02   0.9728341215E-03
   0.9231649557E-01   0.2414736854E+00   0.2080416628E-04  -0.3937360050E-04   0.0000000000E+00   0.0000000000E+00   0.2984885214E-01  -0.6299951772E-04   0.8935755785E-02   0.1091533863E-02
   0.9716289514E-01   0.2330359969E+00   0.2338764269E-04  -0.3746105637E-04   0.0000000000E+00   0.0000000000E+00   0.3069708401E-01  -0.8597456186E-04   0.9183332835E-02   0.1988665806E-02
   0.8879117425E-01   0.7379100554E-01   0.5599615343E-04  -0.1533246072E-04   0.0000000000E+00   0.0000000000E+00   0.1803398295E-01  -0.2845154962E-02   0.4556648396E-02  -0.7483510593E-02
   0.7333751425E-01   0.8912315031E-01   0.4447654954E-04  -0.2164578621E-04   0.0000000000E+00   0.0000000000E+00   0.3051423826E-01   0.1278055319E-02   0.9537688073E-02  -0.9176115644E-02
   0.7076632879E-01   0.7068872405E-01   0.5564738636E-04  -0.2195734571E-04   0.0000000000E+00   0.0000000000E+00   0.1149658649E-01   0.9993518439E-02   0.6447031477E-02  -0.1085267045E-01
   0.8106461497E-01   0.8145708228E-01   0.5050337105E-04  -0.1848851941E-04   0.0000000000E+00   0.0000000000E+00   0.2417455767E-01  -0.6282907978E-03   0.7063880062E-02  -0.8386782038E-02
   0.7205148386E-01   0.7990633108E-01   0.4962436411E-04  -0.2141142406E-04   0.0000000000E+00   0.0000000000E+00   0.2088568689E-01   0.5047214200E-02   0.7779870326E-02  -0.1056546801E-01
   0.7977842847E-01   0.7224016925E-01   0.5550247282E-04  -0.1834045136E-04   0.0000000000E+00   0.0000000000E+00   0.1528051629E-01   0.3735323424E-02   0.5704751914E-02  -0.8663620134E-02
   0.1653172560E+00   0.2330811989E+00   0.4387301170E-04  -0.2571214142E-04   0.0000000000E+00   0.0000000000E+00   0.3440576210E-01  -0.1769129831E-03   0.1026865473E-01   0.4330339158E-03
   0.1555939946E+00   0.2499705607E+00   0.3843358556E-04  -0.2943932906E-04   0.0000000000E+00   0.0000000000E+00   0.3566448179E-01   0.3896042574E-04   0.1071103266E-01   0.1970560614E-04
   0.1458640128E+00   0.2330897524E+00   0.3780676656E-04  -0.2866255442E-04   0.0000000000E+00   0.0000000000E+00   0.3384818664E-01  -0.2025669035E-03   0.1009368592E-01   0.8898010971E-03
   0.1604556800E+00   0.2415258973E+00   0.4120797830E-04  -0.2755868792E-04   0.0000000000E+00   0.0000000000E+00   0.3496675324E-01  -0.9192799497E-04   0.1046244757E-01   0.2534372426E-03
   0.1507290048E+00   0.2415301818E+00   0.3812182307E-04  -0.2902518828E-04   0.0000000000E+00   0.0000000000E+00   0.3466824934E-01  -0.9798327924E-04   0.1037107982E-01   0.4281655412E-03
   0.1555906221E+00   0.2330855294E+00   0.4082807536E-04  -0.2713364594E-04   0.0000000000E+00   0.0000000000E+00   0.3424541996E-01  -0.1288827146E-03   0.1023496117E-01   0.6565505897E-03
   0.1018815108E+00   0.5682335540E-01   0.6554978136E-04  -0.9766502227E-05   0.0000000000E+00   0.0000000000E+00   0.8968244493E-02  -0.7547208233E-02   0.4263108781E-03  -0.5313265784E-02
   0.8321188419E-01   0.5554033794E-01   0.6492469368E-04  -0.1668575771E-04   0.0000000000E+00   0.0000000000E+00   0.4341648183E-03  -0.6322159102E-03  -0.5941532757E-04  -0.6361785360E-03
   0.9533667219E-01   0.6530723194E-01   0.6110619377E-04  -0.1249986279E-04   0.0000000000E+00   0.0000000000E+00   0.1274034035E-01  -0.5875454348E-02   0.2059465801E-02  -0.6113389935E-02
   0.8600141745E-01   0.6466599444E-01   0.6034864923E-04  -0.1568455528E-04   0.0000000000E+00   0.0000000000E+00   0.9126673226E-02  -0.1335236126E-02   0.2337431130E-02  -0.4758662792E-02
   0.9254644950E-01   0.5618236797E-01   0.6498539637E-04  -0.1270483283E-04   0.0000000000E+00   0.0000000000E+00   0.5776400846E-02  -0.3711857597E-02   0.6193629748E-03  -0.2977748455E-02
   0.9815426634E-01   0.1950347533E-01   0.7573974176E-04  -0.5557067448E-05   0.0000000000E+00   0.0000000000E+00  -0.1988397300E-02  -0.2570467434E-01  -0.8307921493E-02   0.3823816791E-02
   0.1000770008E+00   0.0000000000E+00   0.7699981038E-04   0.0000000000E+00   0.0000000000E+00   0.0000000000E+00  -0.8243834540E-03  -0.3170074923E-01  -0.9757539806E-02   0.2643411858E-03
   0.1209117952E+00   0.0000000000E+00   0.7846520743E-04   0.0000000000E+00   0.0000000000E+00   0.0000000000E+00  -0.1575857174E-02  -0.1162655916E-01  -0.3960724899E-02  -0.4358941401E-03
   0.9959518561E-01   0.9798932073E-02   0.7671511051E-04  -0.2782607338E-05   0.0000000000E+00   0.0000000000E+00  -0.7790080668E-05  -0.3056737566E-01  -0.9172549722E-02   0.1822745950E-02
   0.1104946621E+00   0.0000000000E+00   0.7799607314E-04   0.0000000000E+00   0.0000000000E+00   0.0000000000E+00  -0.1393950815E-02  -0.2046147373E-01  -0.6556627362E-02  -0.6869201635E-04
   0.1095335153E+00   0.9752725511E-02   0.7758730461E-04  -0.1790668802E-05   0.0000000000E+00   0.0000000000E+00  -0.1960904180E-02  -0.1905587918E-01  -0.6305035008E-02   0.1034710726E-02
   0.1555789175E+00   0.2161703224E+00   0.4304054552E-04  -0.2484359124E-04   0.0000000000E+00   0.0000000000E+00   0.3328706027E-01  -0.7129581063E-03   0.9772230648E-02   0.9701652658E-03
   0.1750412585E+00   0.2161567882E+00   0.4899549476E-04  -0.2210578993E-04   0.0000000000E+00   0.0000000000E+00   0.3332953856E-01  -0.5880523323E-03   0.9822445867E-02   0.2916483027E-03
   0.1653100884E+00   0.2161636141E+00   0.4601844664E-04  -0.2341591283E-04   0.0000000000E+00   0.0000000000E+00   0.3337421893E-01  -0.6211136073E-03   0.9825931596E-02   0.6212535577E-03
   0.1701792783E+00   0.2246190100E+00   0.4646229471E-04  -0.2389297313E-04   0.0000000000E+00   0.0000000000E+00   0.3381586425E-01  -0.4198002164E-03   0.1001881921E-01   0.3887276821E-03
   0.1604480739E+00   0.2246257750E+00   0.4345094744E-04  -0.2526400647E-04   0.0000000000E+00   0.0000000000E+00   0.3380509210E-01  -0.4412454434E-03   0.1000915400E-01   0.6803085177E-03
   0.1752214218E-01   0.2244881219E+00   0.4070681998E-05  -0.4811806397E-04   0.0000000000E+00   0.0000000000E+00   0.2610940072E-01   0.7707619767E-03   0.8064048810E-02   0.1114612383E-02
   0.0000000000E+00   0.2312007704E+00   0.0000000000E+00  -0.4923258745E-04   0.0000000000E+00   0.0000000000E+00   0.2443717374E-01   0.4826810924E-03   0.7475956451E-02   0.3773079896E-04
   0.0000000000E+00   0.2124525104E+00   0.0000000000E+00  -0.4749555607E-04   0.0000000000E+00   0.0000000000E+00   0.2823120020E-01   0.1744184040E-02   0.8992615272E-02   0.4057329619E-04
   0.8761012257E-02   0.2278443096E+00   0.1976526928E-05  -0.4880438479E-04   0.0000000000E+00   0.0000000000E+00   0.2524618610E-01   0.6811739747E-03   0.7778208023E-02   0.5609264592E-03
   0.0000000000E+00   0.2218266376E+00   0.0000000000E+00  -0.4837440351E-04   0.0000000000E+00   0.0000000000E+00   0.2621074637E-01   0.1038816521E-02   0.8174868869E-02   0.2543367344E-06
   0.8761149246E-02   0.2184701922E+00   0.2113515525E-05  -0.4793080598E-04   0.0000000000E+00   0.0000000000E+00   0.2719034431E-01   0.1310046260E-02   0.8550117170E-02   0.5701538101E-03
   0.0000000000E+00   0.1187116605E+00   0.0000000000E+00  -0.3833847964E-04   0.0000000000E+00   0.0000000000E+00   0.5874333009E-01   0.8504196634E-02   0.2017425802E-01   0.6538169777E-03
   0.0000000000E+00   0.9996612521E-01   0.0000000000E+00  -0.3387579001E-04   0.0000000000E+00   0.0000000000E+00   0.8909121681E-01   0.1383536239E-02   0.2714242591E-01  -0.8209519559E-03
   0.0000000000E+00   0.1093384057E+00   0.0000000000E+00  -0.3659433498E-04   0.0000000000E+00   0.0000000000E+00   0.7230917267E-01   0.5500736542E-02   0.2334297276E-01   0.7319867509E-04
   0.9809555011E-02   0.9948470628E-01   0.7840331496E-05  -0.3376422315E-04   0.0000000000E+00   0.0000000000E+00   0.8646401004E-01   0.3406912686E-03   0.2604141039E-01  -0.6687496749E-02
   0.9760748897E-02   0.1083780819E+00   0.6232716794E-05  -0.3618110745E-04   0.0000000000E+00   0.0000000000E+00   0.6964068159E-01   0.6603248414E-02   0.2287317900E-01  -0.5216206871E-02
   0.1824475125E-01   0.1245338606E+00   0.8402853333E-05  -0.3829738413E-04   0.0000000000E+00   0.0000000000E+00   0.5279483146E-01   0.8538172397E-02   0.1839990116E-01  -0.4390679191E-03
   0.9122624951E-02   0.1216225303E+00   0.4450750907E-05  -0.3855167073E-04   0.0000000000E+00   0.0000000000E+00   0.5559549928E-01   0.7771144699E-02   0.1900999319E-01   0.3281201398E-04
   0.1888363735E-01   0.1112892023E+00   0.1094785499E-04  -0.3613570159E-04   0.0000000000E+00   0.0000000000E+00   0.6444128554E-01   0.6947187582E-02   0.2141654194E-01  -0.5938880849E-02
   0.5561718604E-01   0.1017732779E+00   0.3206613899E-04  -0.2810307393E-04   0.0000000000E+00   0.0000000000E+00   0.4366183808E-01   0.4253888623E-02   0.1437471801E-01  -0.8687660365E-02
   0.5560109306E-01   0.8312023932E-01   0.4406936447E-04  -0.2672017817E-04   0.0000000000E+00   0.0000000000E+00   0.3188638804E-01   0.1326888050E-01   0.1354658056E-01  -0.2022228967E-01
   0.4695798308E-01   0.9706505208E-01   0.3125368051E-04  -0.2961782352E-04   0.0000000000E+00   0.0000000000E+00   0.4862245381E-01   0.6863715071E-02   0.1664585067E-01  -0.1503601111E-01
   0.4717717297E-01   0.8816340737E-01   0.3749857240E-04  -0.2872022926E-04   0.0000000000E+00   0.0000000000E+00   0.4619355127E-01   0.1293172317E-01   0.1773758233E-01  -0.2280278432E-01
   0.5560839458E-01   0.9244705277E-01   0.3732277841E-04  -0.2711722558E-04   0.0000000000E+00   0.0000000000E+00   0.3750535755E-01   0.7556024739E-02   0.1351841469E-01  -0.1445199272E-01
   0.3652403178E-01   0.2153701429E+00   0.9093877415E-05  -0.4557309230E-04   0.0000000000E+00   0.0000000000E+00   0.2849260504E-01   0.1002967355E-02   0.8848671718E-02   0.2541359599E-02
   0.5762500628E-01   0.2158424951E+00   0.1456158281E-04  -0.4265188576E-04   0.0000000000E+00   0.0000000000E+00   0.2947077605E-01   0.4422161335E-03   0.8973897655E-02   0.3299530731E-02
   0.4852911333E-01   0.2330408683E+00   0.1082812631E-04  -0.4583666167E-04   0.0000000000E+00   0.0000000000E+00   0.2616535585E-01   0.1770585603E-03   0.7902724324E-02   0.1897385149E-02
   0.4707449067E-01   0.2156062027E+00   0.1179936942E-04  -0.4423629620E-04   0.0000000000E+00   0.0000000000E+00   0.2892763922E-01   0.7176575569E-03   0.8893589034E-02   0.2953264268E-02
   0.5307705015E-01   0.2244416380E+00   0.1268525493E-04  -0.4429597277E-04   0.0000000000E+00   0.0000000000E+00   0.2787170534E-01   0.3825427687E-03   0.8476274431E-02   0.2572463658E-02
   0.4252668498E-01   0.2242054707E+00   0.1007347717E-04  -0.4574028290E-04   0.0000000000E+00   0.0000000000E+00   0.2734230806E-01   0.5444732247E-03   0.8366034384E-02   0.2244236096E-02
   0.1744756627E-01   0.1456142743E+00   0.6286069164E-05  -0.4070174646E-04   0.0000000000E+00   0.0000000000E+00   0.4253699443E-01   0.7655290015E-02   0.1505768533E-01   0.1503794074E-02
   0.0000000000E+00   0.1562075619E+00   0.0000000000E+00  -0.4243813304E-04   0.0000000000E+00   0.0000000000E+00   0.3943465991E-01   0.7463688950E-02   0.1406950466E-01   0.1248821914E-03
   0.0000000000E+00   0.1374592992E+00   0.0000000000E+00  -0.4070376538E-04   0.0000000000E+00   0.0000000000E+00   0.4631114258E-01   0.9000829708E-02   0.1659359169E-01   0.4448072086E-03
   0.8723649714E-02   0.1509107118E+00   0.3009623942E-05  -0.4177623669E-04   0.0000000000E+00   0.0000000000E+00   0.4110626350E-01   0.7696522390E-02   0.1464083577E-01   0.6676422700E-03
   0.0000000000E+00   0.1468333907E+00   0.0000000000E+00  -0.4160329738E-04   0.0000000000E+00   0.0000000000E+00   0.4308606960E-01   0.8322029010E-02   0.1542242958E-01   0.5126641346E-05
   0.8723908031E-02   0.1415365870E+00   0.3267940575E-05  -0.4089499561E-04   0.0000000000E+00   0.0000000000E+00   0.4446898617E-01   0.8256605310E-02   0.1581767744E-01   0.8301760461E-03
   0.3594387692E-01   0.1343211477E+00   0.1432372469E-04  -0.3696031404E-04   0.0000000000E+00   0.0000000000E+00   0.4497502719E-01   0.5984748240E-02   0.1528793263E-01   0.1461468962E-02
   0.2669552155E-01   0.1399674689E+00   0.1010485053E-04  -0.3907306498E-04   0.0000000000E+00   0.0000000000E+00   0.4430352329E-01   0.7027013854E-02   0.1539916114E-01   0.1371771553E-02
   0.1784595400E-01   0.1350739903E+00   0.7140601637E-05  -0.3957672994E-04   0.0000000000E+00   0.0000000000E+00   0.4756793601E-01   0.8310530700E-02   0.1676354001E-01   0.5284903741E-03
   0.2709445943E-01   0.1294273366E+00   0.1150953468E-04  -0.3779643398E-04   0.0000000000E+00   0.0000000000E+00   0.4749197844E-01   0.6743258846E-02   0.1627057119E-01   0.3028420431E-03
   0.3216455977E-01   0.2345306493E+00   0.6948665332E-05  -0.4791568222E-04   0.0000000000E+00   0.0000000000E+00   0.2465407975E-01   0.2412134449E-03   0.7468587959E-02   0.1307841140E-02
   0.1944786443E-01   0.2499497595E+00   0.3419329505E-05  -0.5024052970E-04   0.0000000000E+00   0.0000000000E+00   0.1985096690E-01  -0.1016334306E-03   0.5924800041E-02   0.1183924591E-03
   0.2580613006E-01   0.2422401012E+00   0.5100959804E-05  -0.4917377464E-04   0.0000000000E+00   0.0000000000E+00   0.2242180475E-01   0.1225960109E-03   0.6763320227E-02   0.6243864355E-03
   0.1848510361E-01   0.2372188907E+00   0.3845311761E-05  -0.4922934219E-04   0.0000000000E+00   0.0000000000E+00   0.2310685427E-01   0.2128255858E-03   0.6995903955E-02   0.6459994408E-03
   0.2484341875E-01   0.2295093007E+00   0.5578445724E-05  -0.4809428877E-04   0.0000000000E+00   0.0000000000E+00   0.2531955167E-01   0.4982913573E-03   0.7745352907E-02   0.1225582907E-02
   0.6446902795E-01   0.8612172627E-01   0.4399904906E-04  -0.2415153393E-04   0.0000000000E+00   0.0000000000E+00   0.3069815343E-01   0.7387153107E-02   0.1142559196E-01  -0.1398838051E-01
   0.6447751172E-01   0.9544813929E-01   0.3843101766E-04  -0.2494901484E-04   0.0000000000E+00   0.0000000000E+00   0.3793014280E-01   0.3474700668E-02   0.1242145304E-01  -0.9292478529E-02
   0.1289783713E+00   0.2146479421E-01   0.7724729142E-04  -0.1729185357E-05   0.0000000000E+00   0.0000000000E+00   0.1396372167E-02  -0.7837276574E-02  -0.1932271322E-02  -0.3458977615E-02
   0.1135664400E+00   0.2048481745E-01   0.7661801306E-04  -0.2960450942E-05   0.0000000000E+00   0.0000000000E+00  -0.4256763535E-03  -0.1547222069E-01  -0.4769369114E-02  -0.5242953840E-03
   0.1249454530E+00   0.1073224456E-01   0.7822195532E-04  -0.1017141951E-05   0.0000000000E+00   0.0000000000E+00   0.5349296669E-04  -0.9681354451E-02  -0.2888358445E-02  -0.1930484832E-02
   0.3292639662E+00   0.0000000000E+00   0.9728520448E-04   0.0000000000E+00   0.0000000000E+00   0.0000000000E+00   0.1631476769E-01   0.4888799307E-02   0.6361070100E-02  -0.8221623975E-05
   0.3500999940E+00   0.0000000000E+00   0.1000000000E-03   0.0000000000E+00   0.0000000000E+00   0.0000000000E+00   0.1646839188E-01   0.4909439935E-02   0.6413349545E-02   0.5623968964E-05
   0.3500999940E+00   0.1923038518E-01   0.1000000000E-03  -0.3847240505E-06   0.0000000000E+00   0.0000000000E+00   0.1662349571E-01   0.4838794681E-02   0.6438687116E-02  -0.3895552964E-05
   0.3396819772E+00   0.0000000000E+00   0.9864024242E-04   0.0000000000E+00   0.0000000000E+00   0.0000000000E+00   0.1643558811E-01   0.4897565256E-02   0.6399946009E-02  -0.2527017711E-04
   0.3500999940E+00   0.9615194787E-02   0.1000000000E-03  -0.1901832590E-06   0.0000000000E+00   0.0000000000E+00   0.1651473586E-01   0.4884680863E-02   0.6419825016E-02   0.3018200201E-05
   0.3396819714E+00   0.9615195818E-02   0.9863439525E-04  -0.1891517243E-06   0.0000000000E+00   0.0000000000E+00   0.1645994706E-01   0.4871783615E-02   0.6399519202E-02  -0.2933088760E-04
   0.3315267782E+00   0.2617116535E-01   0.9750516929E-04  -0.5356467210E-06   0.0000000000E+00   0.0000000000E+00   0.1673087165E-01   0.4739033696E-02   0.6440971604E-02  -0.2217401805E-03
   0.3500999940E+00   0.3846071024E-01   0.1000000000E-03  -0.8296579696E-06   0.0000000000E+00   0.0000000000E+00   0.1722164761E-01   0.4594842748E-02   0.6544947107E-02  -0.5557092239E-05
   0.3408133928E+00   0.2270077590E-01   0.9875979892E-04  -0.4596043217E-06   0.0000000000E+00   0.0000000000E+00   0.1669390908E-01   0.4783718985E-02   0.6443288419E-02  -0.1134586924E-03
   0.3500999940E+00   0.2884555898E-01   0.1000000000E-03  -0.5969163502E-06   0.0000000000E+00   0.0000000000E+00   0.1694275469E-01   0.4717827327E-02   0.6498174604E-02   0.3428394215E-05
   0.3408133652E+00   0.3231594358E-01   0.9873220468E-04  -0.6778204089E-06   0.0000000000E+00   0.0000000000E+00   0.1696591368E-01   0.4659365410E-02   0.6487583728E-02  -0.1159184472E-03
   0.3158752791E+00   0.7695344873E-01   0.9446113331E-04  -0.2123071050E-05   0.0000000000E+00   0.0000000000E+00   0.1927964460E-01   0.3566879376E-02   0.6853957192E-02  -0.9432049258E-03
   0.3328256791E+00   0.6720767248E-01   0.9732309132E-04  -0.1720322723E-05   0.0000000000E+00   0.0000000000E+00   0.1869194410E-01   0.3941615083E-02   0.6790067756E-02  -0.4394698746E-03
   0.3331818672E+00   0.8655493527E-01   0.9713517589E-04  -0.2535026612E-05   0.0000000000E+00   0.0000000000E+00   0.2006043120E-01   0.3412731808E-02   0.7041948904E-02  -0.4864778973E-03
   0.3243504957E+00   0.7208056974E-01   0.9592365400E-04  -0.1912555829E-05   0.0000000000E+00   0.0000000000E+00   0.1897491889E-01   0.3750490423E-02   0.6817622793E-02  -0.6898392357E-03
   0.3330037768E+00   0.7688133209E-01   0.9723280348E-04  -0.2103111161E-05   0.0000000000E+00   0.0000000000E+00   0.1937557661E-01   0.3674558798E-02   0.6915040622E-02  -0.4649976004E-03
   0.3245285568E+00   0.8175419462E-01   0.9576679286E-04  -0.2322677456E-05   0.0000000000E+00   0.0000000000E+00   0.1968201170E-01   0.3496473562E-02   0.6953545578E-02  -0.7113596961E-03
   0.3115099603E+00   0.3581615825E-01   0.9470532348E-04  -0.7608542247E-06   0.0000000000E+00   0.0000000000E+00   0.1682978672E-01   0.4490306962E-02   0.6396028106E-02  -0.6178446739E-03
   0.3158686901E+00   0.1595466440E-01   0.9550113068E-04  -0.3143964533E-06   0.0000000000E+00   0.0000000000E+00   0.1630853776E-01   0.4755986880E-02   0.6319357392E-02  -0.2522471364E-03
   0.3136893527E+00   0.2588542186E-01   0.9513074889E-04  -0.5270426101E-06   0.0000000000E+00   0.0000000000E+00   0.1655834847E-01   0.4623517358E-02   0.6354559749E-02  -0.4255204358E-03
   0.3236977412E+00   0.2106291576E-01   0.9649519094E-04  -0.4232352758E-06   0.0000000000E+00   0.0000000000E+00   0.1652595755E-01   0.4742990688E-02   0.6380684471E-02  -0.2369732660E-03
   0.3215184012E+00   0.3099366580E-01   0.9612223947E-04  -0.6452013013E-06   0.0000000000E+00   0.0000000000E+00   0.1678064283E-01   0.4613608612E-02   0.6418275432E-02  -0.4149234253E-03
   0.2776907629E+00   0.1796140231E-01   0.9062387380E-04  -0.3493851040E-06   0.0000000000E+00   0.0000000000E+00   0.1540409265E-01   0.4363936078E-02   0.5930408617E-02  -0.6474465744E-03
   0.2667561493E+00   0.0000000000E+00   0.8946830443E-04   0.0000000000E+00   0.0000000000E+00   0.0000000000E+00   0.1473240298E-01   0.4296462225E-02   0.5708659560E-02   0.5472636223E-06
   0.2875919775E+00   0.0000000000E+00   0.9198352106E-04   0.0000000000E+00   0.0000000000E+00   0.0000000000E+00   0.1550545498E-01   0.4583653237E-02   0.6026732465E-02   0.2015742270E-05
   0.2722234855E+00   0.8980705811E-02   0.9007550785E-04  -0.1700192042E-06   0.0000000000E+00   0.0000000000E+00   0.1502068533E-01   0.4308542816E-02   0.5798768443E-02  -0.3480633399E-03
   0.2771740479E+00   0.0000000000E+00   0.9071085517E-04   0.0000000000E+00   0.0000000000E+00   0.0000000000E+00   0.1521198661E-01   0.4478973218E-02   0.5907287948E-02  -0.1647026032E-05
   0.2826414080E+00   0.8980704471E-02   0.9134103954E-04  -0.1713593647E-06   0.0000000000E+00   0.0000000000E+00   0.1541341110E-01   0.4461348418E-02   0.5962427856E-02  -0.3028106737E-03
   0.2355710844E+00   0.1793955983E-01   0.8570939638E-04  -0.3429743011E-06   0.0000000000E+00   0.0000000000E+00   0.1337572630E-01   0.3485236195E-02   0.5058288748E-02  -0.1183657942E-02
   0.2459204334E+00   0.0000000000E+00   0.8709636664E-04   0.0000000000E+00   0.0000000000E+00   0.0000000000E+00   0.1367226399E-01   0.3886751502E-02   0.5267704647E-02   0.1665279216E-06
   0.2565972081E+00   0.1801997245E-01   0.8808310244E-04  -0.3463495076E-06   0.0000000000E+00   0.0000000000E+00   0.1453873439E-01   0.3999121317E-02   0.5561356712E-02  -0.8947156404E-03
   0.2407458264E+00   0.8969785578E-02   0.8647041882E-04  -0.1658419713E-06   0.0000000000E+00   0.0000000000E+00   0.1346358258E-01   0.3668861805E-02   0.5139733314E-02  -0.5604400457E-03
   0.2512588628E+00   0.9009991626E-02   0.8763181712E-04  -0.1677839869E-06   0.0000000000E+00   0.0000000000E+00   0.1404733906E-01   0.3915893068E-02   0.5388969639E-02  -0.4764938498E-03
   0.2460841241E+00   0.1797976561E-01   0.8687409834E-04  -0.3442890620E-06   0.0000000000E+00   0.0000000000E+00   0.1407548983E-01   0.3791177146E-02   0.5360000093E-02  -0.1035602289E-02
   0.2989886072E+00   0.8661735762E-01   0.9134118388E-04  -0.2608078801E-05   0.0000000000E+00   0.0000000000E+00   0.1993947737E-01   0.3081138632E-02   0.6906184801E-02  -0.1490365639E-02
   0.3162543786E+00   0.9621634597E-01   0.9399756201E-04  -0.3052128454E-05   0.0000000000E+00   0.0000000000E+00   0.2079257501E-01   0.3006807582E-02   0.7139814779E-02  -0.1004859632E-02
   0.2993766634E+00   0.1058812459E+00   0.9056636417E-04  -0.3679144907E-05   0.0000000000E+00   0.0000000000E+00   0.2160960110E-01   0.2501542167E-02   0.7233342980E-02  -0.1523176231E-02
   0.3076214602E+00   0.9141685803E-01   0.9263622668E-04  -0.2823874851E-05   0.0000000000E+00   0.0000000000E+00   0.2038507592E-01   0.3055780784E-02   0.7032257010E-02  -0.1242233841E-02
   0.3078155458E+00   0.1010488154E+00   0.9232182324E-04  -0.3349589938E-05   0.0000000000E+00   0.0000000000E+00   0.2118973559E-01   0.2754789938E-02   0.7183357658E-02  -0.1264588589E-02
   0.2991826580E+00   0.9624932607E-01   0.9096102950E-04  -0.3115325045E-05   0.0000000000E+00   0.0000000000E+00   0.2076909583E-01   0.2777799176E-02   0.7064068500E-02  -0.1513399636E-02
   0.1936999362E+00   0.1783116367E-01   0.8163822494E-04  -0.3760294766E-06   0.0000000000E+00   0.0000000000E+00   0.9921572442E-02   0.1715765134E-02   0.3491201273E-02  -0.1969557422E-02
   0.2042496467E+00   0.0000000000E+00   0.8298073500E-04   0.0000000000E+00   0.0000000000E+00   0.0000000000E+00   0.1042999061E-01   0.2483697054E-02   0.3874106298E-02  -0.2742659950E-05
   0.2146487644E+00   0.1790971998E-01   0.8354739278E-04  -0.3489211024E-06   0.0000000000E+00   0.0000000000E+00   0.1186585320E-01   0.2762952259E-02   0.4388641636E-02  -0.1539522124E-02
   0.1989749000E+00   0.8915596096E-02   0.8242599601E-04  -0.1737740361E-06   0.0000000000E+00   0.0000000000E+00   0.1007386327E-01   0.2069211317E-02   0.3642922376E-02  -0.9317287991E-03
   0.2094492735E+00   0.8954865574E-02   0.8333948397E-04  -0.1688561938E-06   0.0000000000E+00   0.0000000000E+00   0.1105541617E-01   0.2581759477E-02   0.4091152694E-02  -0.8163134709E-03
   0.2041743159E+00   0.1787044570E-01   0.8255793375E-04  -0.3586044164E-06   0.0000000000E+00   0.0000000000E+00   0.1107662737E-01   0.2313563968E-02   0.4017057402E-02  -0.1746924747E-02
   0.1321681067E+00   0.4107675606E-01   0.7364869370E-04  -0.3059443392E-05   0.0000000000E+00   0.0000000000E+00   0.6795260338E-02  -0.6404433408E-02   0.1172480792E-03  -0.6171892831E-02
   0.1251544821E+00   0.5990050786E-01   0.6753413561E-04  -0.5661938098E-05   0.0000000000E+00   0.0000000000E+00   0.1295390870E-01  -0.6932538652E-02   0.1806411015E-02  -0.7660848069E-02
   0.1130693079E+00   0.3922574513E-01   0.7255092968E-04  -0.5309370324E-05   0.0000000000E+00   0.0000000000E+00   0.3283354470E-02  -0.1033021797E-01  -0.2114059051E-02  -0.3942163622E-02
   0.1286615461E+00   0.5048873588E-01   0.7084305161E-04  -0.4258617409E-05   0.0000000000E+00   0.0000000000E+00   0.9596433000E-02  -0.6921206376E-02   0.8025679872E-03  -0.6902099092E-02
   0.1191119025E+00   0.4956323439E-01   0.7004950123E-04  -0.5377706492E-05   0.0000000000E+00   0.0000000000E+00   0.8454331205E-02  -0.7857700216E-02   0.1789892967E-03  -0.5877854432E-02
   0.1226186677E+00   0.4015149692E-01   0.7306072451E-04  -0.3936182646E-05   0.0000000000E+00   0.0000000000E+00   0.5702436556E-02  -0.8364649536E-02  -0.7986638940E-03  -0.5202237679E-02
   0.1728050259E+00   0.1762993436E-01   0.8004889384E-04  -0.4564414015E-06   0.0000000000E+00   0.0000000000E+00   0.7463263254E-02   0.1227962070E-03   0.2275817838E-02  -0.2446693233E-02
   0.1834146914E+00   0.0000000000E+00   0.8135438463E-04   0.0000000000E+00   0.0000000000E+00   0.0000000000E+00   0.8074646606E-02   0.1238702960E-02   0.2794004870E-02  -0.1393694111E-04
   0.1781100027E+00   0.8814993061E-02   0.8085265004E-04  -0.2023493595E-06   0.0000000000E+00   0.0000000000E+00   0.7633989134E-02   0.6307868145E-03   0.2479432784E-02  -0.1151609171E-02
   0.1885574128E+00   0.8915584705E-02   0.8159578559E-04  -0.1851646935E-06   0.0000000000E+00   0.0000000000E+00   0.8880514649E-02   0.1426040916E-02   0.3091966669E-02  -0.1045040964E-02
   0.1832524321E+00   0.1773056022E-01   0.8080209223E-04  -0.4059795460E-06   0.0000000000E+00   0.0000000000E+00   0.8917574855E-02   0.1007064930E-02   0.2977391935E-02  -0.2198895041E-02
   0.9245960667E-01   0.3825718484E-01   0.7165476971E-04  -0.1115775821E-04   0.0000000000E+00   0.0000000000E+00  -0.2521155206E-02  -0.1458579334E-01  -0.5132084562E-02   0.4992180217E-02
   0.1074757584E+00   0.4802467389E-01   0.6939539174E-04  -0.7416206188E-05   0.0000000000E+00   0.0000000000E+00   0.5099074577E-02  -0.1016113357E-01  -0.1518617698E-02  -0.4318516988E-02
   0.9717073321E-01   0.4754040172E-01   0.6877660825E-04  -0.1032867955E-04   0.0000000000E+00   0.0000000000E+00   0.3274984829E-02  -0.9656149573E-02  -0.1914349423E-02  -0.6560707134E-03
   0.1027643705E+00   0.3874209781E-01   0.7201948517E-04  -0.7600685493E-05   0.0000000000E+00   0.0000000000E+00   0.1517412227E-02  -0.1157954509E-01  -0.3018639859E-02  -0.1982979995E-03
   0.3306497264E+00   0.2499822326E+00   0.9416837411E-04  -0.1776738585E-04   0.0000000000E+00   0.0000000000E+00   0.3303646600E-01  -0.1490780856E-04   0.9906467456E-02  -0.1055089960E-04
   0.3500999940E+00   0.2307539719E+00   0.1000000000E-03  -0.1526011930E-04   0.0000000000E+00   0.0000000000E+00   0.3190018571E-01   0.7595827142E-04   0.9592843194E-02  -0.8447625015E-05
   0.3500999940E+00   0.2499823128E+00   0.1000000000E-03  -0.1768721715E-04   0.0000000000E+00   0.0000000000E+00   0.3291272539E-01   0.5853266898E-05   0.9875573597E-02   0.3295424716E-05
   0.3403749206E+00   0.2403681278E+00   0.9712961775E-04  -0.1648116716E-04   0.0000000000E+00   0.0000000000E+00   0.3247815872E-01   0.2979390004E-04   0.9752385785E-02  -0.2698711062E-04
   0.3500999940E+00   0.2403681457E+00   0.1000000000E-03  -0.1646329601E-04   0.0000000000E+00   0.0000000000E+00   0.3244707711E-01   0.2927656704E-04   0.9742906103E-02  -0.4797954287E-05
   0.3403748771E+00   0.2499822927E+00   0.9708611561E-04  -0.1770729565E-04   0.0000000000E+00   0.0000000000E+00   0.3293988856E-01  -0.8486195125E-05   0.9879420708E-02  -0.1475438658E-04
   0.3241553012E+00   0.2323433599E+00   0.9244723828E-04  -0.1558709075E-04   0.0000000000E+00   0.0000000000E+00   0.3211208084E-01   0.5989143508E-04   0.9651591684E-02  -0.1989916676E-03
   0.3111994258E+00   0.2499819922E+00   0.8830383175E-04  -0.1800777765E-04   0.0000000000E+00   0.0000000000E+00   0.3330546390E-01  -0.1261403741E-04   0.9987854959E-02  -0.1051036356E-04
   0.3274024764E+00   0.2411628000E+00   0.9328535224E-04  -0.1666597317E-04   0.0000000000E+00   0.0000000000E+00   0.3259945135E-01   0.2553495336E-04   0.9787495892E-02  -0.9702828324E-04
   0.3209245668E+00   0.2499821347E+00   0.9124178503E-04  -0.1786526920E-04   0.0000000000E+00   0.0000000000E+00   0.3311610823E-01  -0.2663085519E-04   0.9926843213E-02  -0.1322838618E-04