 VARIABLES = X,Y,DU1,DU2,U1,U2,S11,S22,S33,S12
 ZONE, T="  0.1000D+01" F=FEPOINT, I=   80 J=   60
   0.0000000000E+00   0.0000000000E+00   0.0000000000E+00   0.0000000000E+00   0.0000000000E+00   0.0000000000E+00   0.8952323150E+00   0.5247862498E-02   0.2701440532E+00   0.2268562902E-02
   0.6384060504E-01   0.1292160145E-02   0.5072725400E-03   0.1292160145E-02   0.0000000000E+00   0.0000000000E+00   0.8556250666E+00  -0.1372385063E-02   0.2562758045E+00   0.1671927592E-02
   0.6358642593E-01   0.7526440507E-02   0.2530934270E-03   0.1276440417E-02   0.0000000000E+00   0.0000000000E+00   0.4281392925E+00  -0.1130061716E-02   0.1281027692E+00   0.3989649020E-02
   0.0000000000E+00   0.6233926093E-02   0.0000000000E+00  -0.1607399744E-04   0.0000000000E+00   0.0000000000E+00   0.4466460470E+00   0.4439591650E-02   0.1353256916E+00   0.4084063378E-02
   0.1276469816E+00   0.5067236327E-02   0.9803166017E-03   0.5067236327E-02   0.0000000000E+00   0.0000000000E+00   0.7891268278E+00   0.3407824683E-03   0.2368402831E+00   0.1711203748E-02
   0.1271567012E+00   0.1130282823E-01   0.4900362356E-03   0.5052828138E-02   0.0000000000E+00   0.0000000000E+00   0.3945792872E+00   0.2559295441E-03   0.1184505650E+00   0.3989516347E-02
   0.1914185046E+00   0.1115095017E-01   0.1418506602E-02   0.1115095017E-01   0.0000000000E+00   0.0000000000E+00   0.7300460345E+00  -0.7050556599E-04   0.2189926587E+00   0.1809087443E-02
   0.1907088075E+00   0.1738760210E-01   0.7088095465E-03   0.1113760201E-01   0.0000000000E+00   0.0000000000E+00   0.3648961069E+00  -0.3313298482E-04   0.1094588922E+00   0.4012966644E-02
   0.2551546311E+00   0.1936509121E-01   0.1821301076E-02   0.1936509121E-01   0.0000000000E+00   0.0000000000E+00   0.6685907603E+00   0.2969048195E-05   0.2005781188E+00   0.1696624161E-02
   0.2542437815E+00   0.2560286684E-01   0.9104514584E-03   0.1935286675E-01   0.0000000000E+00   0.0000000000E+00   0.3344353666E+00  -0.1761956527E-04   0.1003253241E+00   0.3989519044E-02
   0.3188560406E+00   0.2953213525E-01   0.2189377590E-02   0.2953213525E-01   0.0000000000E+00   0.0000000000E+00   0.6081263695E+00   0.1139458327E-04   0.1824413292E+00   0.1792677315E-02
   0.3177609671E+00   0.3577102033E-01   0.1094304087E-02   0.2952102024E-01   0.0000000000E+00   0.0000000000E+00   0.3039410935E+00   0.2452244596E-04   0.9118968478E-01   0.4007486206E-02
   0.3825221506E+00   0.4147466202E-01   0.2522155631E-02   0.4147466202E-01   0.0000000000E+00   0.0000000000E+00   0.5471123170E+00  -0.1243300282E-04   0.1641299652E+00   0.1717297764E-02
   0.3812608285E+00   0.4771465818E-01   0.1260833549E-02   0.4146465809E-01   0.0000000000E+00   0.0000000000E+00   0.2736549188E+00  -0.2142644019E-04   0.8209004770E-01   0.3994822098E-02
   0.4461534173E+00   0.5501500025E-01   0.2820089331E-02   0.5501500025E-01   0.0000000000E+00   0.0000000000E+00   0.4864645733E+00   0.1061194470E-04   0.1459425556E+00   0.1774616127E-02
   0.4447430227E+00   0.6125610880E-01   0.1409694682E-02   0.5500610871E-01   0.0000000000E+00   0.0000000000E+00   0.2431543427E+00   0.1695030252E-04   0.7295138790E-01   0.4003707360E-02
   0.5097494940E+00   0.6997571934E-01   0.3082834010E-02   0.6997571934E-01   0.0000000000E+00   0.0000000000E+00   0.4255503637E+00  -0.8571067775E-05   0.1276625378E+00   0.1731648412E-02
   0.5082078058E+00   0.7621793855E-01   0.1541145838E-02   0.6996793846E-01   0.0000000000E+00   0.0000000000E+00   0.2128363998E+00  -0.1307074363E-04   0.6384699870E-01   0.3997035710E-02
   0.5733106410E+00   0.8617918854E-01   0.3310647992E-02   0.8617918854E-01   0.0000000000E+00   0.0000000000E+00   0.3648421399E+00   0.6908182379E-05   0.1094547144E+00   0.1763598324E-02
   0.5716549881E+00   0.9242251987E-01   0.1654995095E-02   0.8617251978E-01   0.0000000000E+00   0.0000000000E+00   0.1823731181E+00   0.1015977729E-04   0.5471498337E-01   0.4002807592E-02
   0.6368366637E+00   0.1034479365E+00   0.3503338658E-02   0.1034479365E+00   0.0000000000E+00   0.0000000000E+00   0.3039501374E+00  -0.5763988333E-05   0.9118331202E-01   0.1739900366E-02
   0.6350847064E+00   0.1096923792E+00   0.1751381428E-02   0.1034423791E+00   0.0000000000E+00   0.0000000000E+00   0.1520114572E+00  -0.8567592756E-05   0.4560086689E-01   0.3996921726E-02
   0.7003277096E+00   0.1216043734E+00   0.3661051641E-02   0.1216043734E+00   0.0000000000E+00   0.0000000000E+00   0.2433062985E+00   0.5404509899E-05   0.7299351091E-01   0.1757776316E-02
   0.6984968682E+00   0.1278499261E+00   0.1830210206E-02   0.1215999260E+00   0.0000000000E+00   0.0000000000E+00   0.1216300297E+00   0.9984369506E-05   0.3649200423E-01   0.4003460412E-02
   0.7637836550E+00   0.1404709633E+00   0.3783664981E-02   0.1404709633E+00   0.0000000000E+00   0.0000000000E+00   0.1820585235E+00  -0.6999927887E-05   0.5461545708E-01   0.1743115906E-02
   0.7618915249E+00   0.1467176347E+00   0.1891534892E-02   0.1404676346E+00   0.0000000000E+00   0.0000000000E+00   0.9103108284E-01  -0.2135583863E-04   0.2730291810E-01   0.3996857313E-02
   0.8272046499E+00   0.1598702926E+00   0.3871326946E-02   0.1598702926E+00   0.0000000000E+00   0.0000000000E+00   0.1228481791E+00   0.1520773632E-04   0.3685901604E-01   0.1758255074E-02
   0.8252686738E+00   0.1661180478E+00   0.1935350794E-02   0.1598680477E+00   0.0000000000E+00   0.0000000000E+00   0.6145789405E-01   0.6917078305E-04   0.1845811945E-01   0.4000301929E-02
   0.8905903643E+00   0.1796242168E+00   0.3923708278E-02   0.1796242168E+00   0.0000000000E+00   0.0000000000E+00   0.5610994227E-01  -0.4785212018E-04   0.1681862704E-01   0.1737019327E-02
   0.8886282301E+00   0.1858731857E+00   0.1961574122E-02   0.1796231856E+00   0.0000000000E+00   0.0000000000E+00   0.2800531272E-01  -0.2525129861E-03   0.8325839919E-02   0.4007352030E-02
   0.9539418505E+00   0.1995575423E+00   0.3941862542E-02   0.1995575423E+00   0.0000000000E+00   0.0000000000E+00   0.1771274074E-01   0.1724968160E-03   0.5365571266E-02   0.1766305887E-02
   0.9519705160E+00   0.2058072492E+00   0.1970528023E-02   0.1995572491E+00   0.0000000000E+00   0.0000000000E+00   0.8569944304E-02   0.9403644291E-03   0.2853092620E-02   0.3987353586E-02
   0.6333306935E-01   0.1377117063E-01  -0.2631501897E-06   0.1271170435E-02   0.0000000000E+00   0.0000000000E+00   0.3708852007E-04  -0.6897800833E-03  -0.1958074690E-03   0.6313490711E-02
   0.0000000000E+00   0.1247868848E-01   0.0000000000E+00  -0.2131172423E-04   0.0000000000E+00   0.0000000000E+00  -0.6650773127E-04   0.2688194417E-02   0.7865060058E-03   0.5828025897E-02
   0.1266664972E+00   0.1754803050E-01  -0.1678070651E-06   0.5048030304E-02   0.0000000000E+00   0.0000000000E+00   0.4847284722E-05   0.1618892365E-03   0.5002095635E-04   0.6280024319E-02
   0.1899997911E+00   0.2363315430E-01  -0.2068785523E-06   0.1113315410E-01   0.0000000000E+00   0.0000000000E+00  -0.1899941580E-04  -0.2751733200E-04  -0.1395502434E-04   0.6203547065E-02
   0.2533331402E+00   0.3184878955E-01  -0.1898323621E-06   0.1934878935E-01   0.0000000000E+00   0.0000000000E+00   0.1843780887E-04  -0.3178823299E-05   0.4577695672E-05   0.6292296576E-02
   0.3166664661E+00   0.4201731776E-01  -0.1968745070E-06   0.2951731756E-01   0.0000000000E+00   0.0000000000E+00  -0.1344507913E-04   0.7670100490E-05  -0.1732493592E-05   0.6215984158E-02
   0.3799998002E+00   0.5396132182E-01  -0.1947912908E-06   0.4146132162E-01   0.0000000000E+00   0.0000000000E+00   0.8264440538E-05  -0.6266641239E-05   0.5993397894E-06   0.6276058218E-02
   0.4433331336E+00   0.6750314643E-01  -0.1944480549E-06   0.5500314623E-01   0.0000000000E+00   0.0000000000E+00  -0.4023406603E-05   0.4022690191E-05  -0.2149235804E-09   0.6230634823E-02
   0.5066664643E+00   0.8246534403E-01  -0.1957274812E-06   0.6996534383E-01   0.0000000000E+00   0.0000000000E+00   0.7075947394E-06  -0.2063780386E-05  -0.4068556939E-06   0.6263917906E-02
   0.5699997984E+00   0.9867029779E-01  -0.1945687502E-06   0.8617029759E-01   0.0000000000E+00   0.0000000000E+00   0.1904271611E-05   0.8048531560E-06   0.8127374301E-06   0.6240491794E-02
   0.6333331304E+00   0.1159405263E+00  -0.1945954919E-06   0.1034405261E+00   0.0000000000E+00   0.0000000000E+00  -0.3701449992E-05  -0.1541485768E-05  -0.1572880728E-05   0.6256009379E-02
   0.6966664608E+00   0.1340984445E+00  -0.1971691127E-06   0.1215984443E+00   0.0000000000E+00   0.0000000000E+00   0.3605168081E-05   0.9668819343E-05   0.3982196227E-05   0.6246384069E-02
   0.7599998012E+00   0.1529665233E+00  -0.1888274475E-06   0.1404665231E+00   0.0000000000E+00   0.0000000000E+00   0.1311297646E-05  -0.4596225570E-04  -0.1339528741E-04   0.6253279329E-02
   0.8233331111E+00   0.1723673064E+00  -0.2118909924E-06   0.1598673062E+00   0.0000000000E+00   0.0000000000E+00  -0.1518915956E-04   0.1882124099E-03   0.5190697512E-04   0.6242605668E-02
   0.8866665113E+00   0.1921228168E+00  -0.1446560845E-06   0.1796228166E+00   0.0000000000E+00   0.0000000000E+00   0.2902554456E-04  -0.7253596762E-03  -0.2089002395E-03   0.6269014087E-02
   0.9499996276E+00   0.2120572455E+00  -0.3604471775E-06   0.1995572453E+00   0.0000000000E+00   0.0000000000E+00   0.6939551409E-04   0.2728504320E-02   0.8393699502E-03   0.6222948949E-02
   0.6307972990E-01   0.2002636058E-01  -0.2536025990E-03   0.1276359885E-02   0.0000000000E+00   0.0000000000E+00  -0.4281011421E+00  -0.2835302605E-03  -0.1285154017E+00   0.4010350874E-02
   0.0000000000E+00   0.1873423560E-01   0.0000000000E+00  -0.1576510214E-04   0.0000000000E+00   0.0000000000E+00  -0.4467046776E+00   0.9737893220E-03  -0.1337192665E+00   0.3915936517E-02
   0.1261762826E+00   0.2380284776E-01  -0.4903823944E-03   0.5052847059E-02   0.0000000000E+00   0.0000000000E+00  -0.3945870467E+00   0.9488512192E-04  -0.1183476485E+00   0.4010483547E-02
   0.1892907767E+00   0.2988759975E-01  -0.7092212751E-03   0.1113759905E-01   0.0000000000E+00   0.0000000000E+00  -0.3649015408E+00  -0.4130902003E-04  -0.1094828549E+00   0.3987033250E-02
   0.2524225026E+00   0.3810286675E-01  -0.9108273552E-03   0.1935286605E-01   0.0000000000E+00   0.0000000000E+00  -0.3344265280E+00   0.2435039053E-04  -0.1003206533E+00   0.4010480850E-02
   0.3155719580E+00   0.4827102211E-01  -0.1094705044E-02   0.2952102141E-01   0.0000000000E+00   0.0000000000E+00  -0.3039497030E+00  -0.1761091758E-04  -0.9119019416E-01   0.3992513688E-02
   0.3787387804E+00   0.6021465787E-01  -0.1261214606E-02   0.4146465717E-01   0.0000000000E+00   0.0000000000E+00  -0.2736477228E+00   0.1402969939E-04  -0.8209010793E-01   0.4005177794E-02
   0.4419232355E+00   0.7375610999E-01  -0.1410092529E-02   0.5500610929E-01   0.0000000000E+00   0.0000000000E+00  -0.2431600151E+00  -0.1169074727E-04  -0.7295151176E-01   0.3996292532E-02
   0.5051251309E+00   0.8871793887E-01  -0.1541529062E-02   0.6996793817E-01   0.0000000000E+00   0.0000000000E+00  -0.2128321919E+00   0.9931308143E-05  -0.6384667818E-01   0.4002964182E-02
   0.5683446015E+00   0.1049225206E+00  -0.1655391529E-02   0.8617251987E-01   0.0000000000E+00   0.0000000000E+00  -0.1823761733E+00  -0.7976286836E-05  -0.5471524488E-01   0.3997192299E-02
   0.6315815598E+00   0.1221923797E+00  -0.1751765241E-02   0.1034423790E+00   0.0000000000E+00   0.0000000000E+00  -0.1520090850E+00   0.3340026974E-05  -0.4560172348E-01   0.4003078164E-02
   0.6948360502E+00   0.1403499278E+00  -0.1830607817E-02   0.1215999271E+00   0.0000000000E+00   0.0000000000E+00  -0.1216329957E+00   0.1321532840E-04  -0.3648593413E-01   0.3996539472E-02
   0.7581080777E+00   0.1592176299E+00  -0.1891912316E-02   0.1404676292E+00   0.0000000000E+00   0.0000000000E+00  -0.9102457638E-01  -0.7619095348E-04  -0.2733023020E-01   0.4003142554E-02
   0.8213975499E+00   0.1786180705E+00  -0.1935773078E-02   0.1598680698E+00   0.0000000000E+00   0.0000000000E+00  -0.6147352451E-01   0.3140519972E-03  -0.1834784175E-01   0.3999697940E-02
   0.8847047958E+00   0.1983731026E+00  -0.1961860178E-02   0.1796231019E+00   0.0000000000E+00   0.0000000000E+00  -0.2798026859E-01  -0.1204385742E-02  -0.8755396300E-02   0.3992647854E-02
   0.9480286997E+00   0.2183075580E+00  -0.1971288324E-02   0.1995575573E+00   0.0000000000E+00   0.0000000000E+00  -0.8529329495E-02   0.4521885600E-02  -0.1202233169E-02   0.4012646296E-02
   0.6282562868E-01   0.2629199975E-01  -0.5077038230E-03   0.1291999349E-02   0.0000000000E+00   0.0000000000E+00  -0.8557755979E+00  -0.7523868588E-04  -0.2567552510E+00   0.1701090471E-02
   0.0000000000E+00   0.2500061617E-01   0.0000000000E+00   0.6157720954E-06   0.0000000000E+00   0.0000000000E+00  -0.8949820941E+00   0.2025104564E-03  -0.2684338751E+00   0.2075384847E-02
   0.1256859254E+00   0.3006727663E-01  -0.9807396150E-03   0.5067276232E-02   0.0000000000E+00   0.0000000000E+00  -0.7891210526E+00   0.3706838321E-04  -0.2367251953E+00   0.1728747104E-02
   0.1885811411E+00   0.3615094211E-01  -0.1418856888E-02   0.1115094171E-01   0.0000000000E+00   0.0000000000E+00  -0.7299972135E+00  -0.2334377947E-04  -0.2190061672E+00   0.1783817925E-02
   0.2515116063E+00   0.4436509238E-01  -0.1821723694E-02   0.1936509198E-01   0.0000000000E+00   0.0000000000E+00  -0.6686453547E+00   0.1685025038E-04  -0.2005885513E+00   0.1718782174E-02
   0.3144769202E+00   0.5453213643E-01  -0.2189742765E-02   0.2953213603E-01   0.0000000000E+00   0.0000000000E+00  -0.6080822983E+00  -0.1291172912E-04  -0.1824285630E+00   0.1775353865E-02
   0.3774774304E+00   0.6647466158E-01  -0.2522564554E-02   0.4147466118E-01   0.0000000000E+00   0.0000000000E+00  -0.5471432720E+00   0.1017280531E-04  -0.1641399297E+00   0.1730585287E-02
   0.4405128637E+00   0.8001500125E-01  -0.2820464323E-02   0.5501500085E-01   0.0000000000E+00   0.0000000000E+00  -0.4864452120E+00  -0.8138215633E-05  -0.1459360051E+00   0.1764113718E-02
   0.5035834232E+00   0.9497571939E-01  -0.3083236755E-02   0.6997571899E-01   0.0000000000E+00   0.0000000000E+00  -0.4255602212E+00   0.6419760491E-05  -0.1276661404E+00   0.1740515263E-02
   0.5666889668E+00   0.1111791892E+00  -0.3311026174E-02   0.8617918879E-01   0.0000000000E+00   0.0000000000E+00  -0.3648398609E+00  -0.4150909143E-05  -0.1094532035E+00   0.1755417579E-02
   0.6298295845E+00   0.1284479363E+00  -0.3503740538E-02   0.1034479359E+00   0.0000000000E+00   0.0000000000E+00  -0.3039474980E+00  -0.1608173482E-05  -0.9118473186E-01   0.1748080361E-02
   0.6930052283E+00   0.1466043764E+00  -0.3661429664E-02   0.1216043760E+00   0.0000000000E+00   0.0000000000E+00  -0.2433075920E+00   0.2165725134E-04  -0.7298578041E-01   0.1749455021E-02
   0.7562159267E+00   0.1654709526E+00  -0.3784063342E-02   0.1404709522E+00   0.0000000000E+00   0.0000000000E+00  -0.1820741704E+00  -0.9616914766E-04  -0.5465110186E-01   0.1750324876E-02
   0.8194615924E+00   0.1848703365E+00  -0.3871730591E-02   0.1598703361E+00   0.0000000000E+00   0.0000000000E+00  -0.1227865475E+00   0.3748130159E-03  -0.3672352034E-01   0.1756533033E-02
   0.8827426675E+00   0.2046240515E+00  -0.3923988456E-02   0.1796240511E+00   0.0000000000E+00   0.0000000000E+00  -0.5621808512E-01  -0.1415226029E-02  -0.1728999334E-01   0.1724951969E-02
   0.9460572467E+00   0.2245581640E+00  -0.3942741293E-02   0.1995581636E+00   0.0000000000E+00   0.0000000000E+00  -0.1793276251E-01   0.5294994765E-02  -0.3791330322E-02   0.1787795689E-02
           1           2           3           4
           2           5           6           3
           5           7           8           6
           7           9          10           8
           9          11          12          10
          11          13          14          12
          13          15          16          14
          15          17          18          16
          17          19          20          18
          19          21          22          20
          21          23          24          22
          23          25          26          24
          25          27          28          26
          27          29          30          28
          29          31          32          30
           4           3          33          34
           3           6          35          33
           6           8          36          35
           8          10          37          36
          10          12          38          37
          12          14          39          38
          14          16          40          39
          16          18          41          40
          18          20          42          41
          20          22          43          42
          22          24          44          43
          24          26          45          44
          26          28          46          45
          28          30          47          46
          30          32          48          47
          34          33          49          50
          33          35          51          49
          35          36          52          51
          36          37          53          52
          37          38          54          53
          38          39          55          54
          39          40          56          55
          40          41          57          56
          41          42          58          57
          42          43          59          58
          43          44          60          59
          44          45          61          60
          45          46          62          61
          46          47          63          62
          47          48          64          63
          50          49          65          66
          49          51          67          65
          51          52          68          67
          52          53          69          68
          53          54          70          69
          54          55          71          70
          55          56          72          71
          56          57          73          72
          57          58          74          73
          58          59          75          74
          59          60          76          75
          60          61          77          76
          61          62          78          77
          62          63          79          78
          63          64          80          79
 VARIABLES = X,Y,DU1,DU2,U1,U2,S11,S22,S33,S12
 ZONE, T="  0.2000D+01" F=FEPOINT, I=   80 J=   60
   0.0000000000E+00   0.0000000000E+00   0.0000000000E+00   0.0000000000E+00   0.0000000000E+00   0.0000000000E+00   0.1790464626E+01   0.1049572497E-01   0.5402881054E+00   0.4537125791E-02
   0.6434787758E-01   0.2584320285E-02   0.5072725380E-03   0.1292160140E-02   0.5072725400E-03   0.1292160145E-02   0.1711250130E+01  -0.2744770119E-02   0.5125516079E+00   0.3343855175E-02
   0.6383951935E-01   0.8802880919E-02   0.2530934260E-03   0.1276440412E-02   0.2530934270E-03   0.1276440417E-02   0.8562785834E+00  -0.2260123426E-02   0.2562055380E+00   0.7979298018E-02
   0.0000000000E+00   0.6217852095E-02   0.0000000000E+00  -0.1607399738E-04   0.0000000000E+00  -0.1607399744E-04   0.8932920922E+00   0.8879183275E-02   0.2706513827E+00   0.8168126733E-02
   0.1286272982E+00   0.1013447263E-01   0.9803165979E-03   0.5067236307E-02   0.9803166017E-03   0.5067236327E-02   0.1578253653E+01   0.6815649347E-03   0.4736805653E+00   0.3422407487E-02
   0.1276467375E+00   0.1635565635E-01   0.4900362337E-03   0.5052828119E-02   0.4900362356E-03   0.5052828138E-02   0.7891585729E+00   0.5118590868E-03   0.2369011296E+00   0.7979032672E-02
   0.1928370112E+00   0.2230190030E-01   0.1418506596E-02   0.1115095013E-01   0.1418506602E-02   0.1115095017E-01   0.1460092066E+01  -0.1410111316E-03   0.4379853166E+00   0.3618174877E-02
   0.1914176171E+00   0.2852520407E-01   0.7088095438E-03   0.1113760197E-01   0.7088095465E-03   0.1113760201E-01   0.7297922126E+00  -0.6626596944E-04   0.2189177840E+00   0.8025933266E-02
   0.2569759321E+00   0.3873018235E-01   0.1821301069E-02   0.1936509114E-01   0.1821301076E-02   0.1936509121E-01   0.1337181518E+01   0.5938096265E-05   0.4011562369E+00   0.3393248314E-02
   0.2551542329E+00   0.4495573351E-01   0.9104514550E-03   0.1935286667E-01   0.9104514584E-03   0.1935286675E-01   0.6688707320E+00  -0.3523912983E-04   0.2006506479E+00   0.7979038066E-02
   0.3210454182E+00   0.5906427038E-01   0.2189377582E-02   0.2953213513E-01   0.2189377590E-02   0.2953213525E-01   0.1216252737E+01   0.2278916658E-04   0.3648826578E+00   0.3585354621E-02
   0.3188552712E+00   0.6529204046E-01   0.1094304083E-02   0.2952102013E-01   0.1094304087E-02   0.2952102024E-01   0.6078821860E+00   0.4904489154E-04   0.1823793693E+00   0.8014972390E-02
   0.3850443063E+00   0.8294932388E-01   0.2522155622E-02   0.4147466186E-01   0.2522155631E-02   0.4147466202E-01   0.1094224632E+01  -0.2486600569E-04   0.3282599299E+00   0.3434595519E-02
   0.3825216621E+00   0.8917931612E-01   0.1260833544E-02   0.4146465794E-01   0.1260833549E-02   0.4146465809E-01   0.5473098367E+00  -0.4285287954E-04   0.1641800951E+00   0.7989644176E-02
   0.4489735067E+00   0.1100300003E+00   0.2820089321E-02   0.5501500005E-01   0.2820089331E-02   0.5501500025E-01   0.9729291452E+00   0.2122388994E-04   0.2918851107E+00   0.3549232246E-02
   0.4461527174E+00   0.1162622173E+00   0.1409694677E-02   0.5500610851E-01   0.1409694682E-02   0.5500610871E-01   0.4863086847E+00   0.3390060530E-04   0.1459027756E+00   0.8007414700E-02
   0.5128323280E+00   0.1399514384E+00   0.3082834000E-02   0.6997571909E-01   0.3082834010E-02   0.6997571934E-01   0.8511007264E+00  -0.1714213633E-04   0.2553250753E+00   0.3463296816E-02
   0.5097489517E+00   0.1461858768E+00   0.1541145833E-02   0.6996793821E-01   0.1541145838E-02   0.6996793846E-01   0.4256727990E+00  -0.2614148792E-04   0.1276939973E+00   0.7994071400E-02
   0.5766212890E+00   0.1723583768E+00   0.3310647981E-02   0.8617918823E-01   0.3310647992E-02   0.8617918854E-01   0.7296842791E+00   0.1381636666E-04   0.2189094286E+00   0.3527196638E-02
   0.5733099832E+00   0.1785950393E+00   0.1654995089E-02   0.8617251946E-01   0.1654995095E-02   0.8617251978E-01   0.3647462359E+00   0.2031955618E-04   0.1094299666E+00   0.8005615165E-02
   0.6403400023E+00   0.2068958726E+00   0.3503338647E-02   0.1034479361E+00   0.3503338658E-02   0.1034479365E+00   0.6079002743E+00  -0.1152797953E-04   0.1823666239E+00   0.3479800723E-02
   0.6368360879E+00   0.2131347580E+00   0.1751381422E-02   0.1034423788E+00   0.1751381428E-02   0.1034423791E+00   0.3040229143E+00  -0.1713518533E-04   0.9120173372E-01   0.7993843434E-02
   0.7039887613E+00   0.2432087463E+00   0.3661051629E-02   0.1216043729E+00   0.3661051641E-02   0.1216043734E+00   0.4866125968E+00   0.1080902119E-04   0.1459870217E+00   0.3515552626E-02
   0.7003270784E+00   0.2494498516E+00   0.1830210200E-02   0.1215999256E+00   0.1830210206E-02   0.1215999260E+00   0.2432600593E+00   0.1996873943E-04   0.7298400842E-01   0.8006920812E-02
   0.7675673199E+00   0.2809419262E+00   0.3783664969E-02   0.1404709628E+00   0.3783664981E-02   0.1404709633E+00   0.3641170469E+00  -0.1399985694E-04   0.1092309141E+00   0.3486231813E-02
   0.7637830598E+00   0.2871852688E+00   0.1891534886E-02   0.1404676341E+00   0.1891534892E-02   0.1404676346E+00   0.1820621656E+00  -0.4271167881E-04   0.5460583617E-01   0.7993714631E-02
   0.8310759769E+00   0.3197405846E+00   0.3871326934E-02   0.1598702920E+00   0.3871326946E-02   0.1598702926E+00   0.2456963579E+00   0.3041547295E-04   0.7371803202E-01   0.3516510150E-02
   0.8272040246E+00   0.3259860950E+00   0.1935350788E-02   0.1598680472E+00   0.1935350794E-02   0.1598680477E+00   0.1229157880E+00   0.1383415679E-03   0.3691623886E-01   0.8000603861E-02
   0.8945140725E+00   0.3592484330E+00   0.3923708266E-02   0.1796242162E+00   0.3923708278E-02   0.1796242168E+00   0.1122198844E+00  -0.9570423984E-04   0.3363725404E-01   0.3474038648E-02
   0.8905898042E+00   0.3654963706E+00   0.1961574116E-02   0.1796231850E+00   0.1961574122E-02   0.1796231856E+00   0.5601062536E-01  -0.5050259724E-03   0.1665167982E-01   0.8014704048E-02
   0.9578837131E+00   0.3991150838E+00   0.3941862530E-02   0.1995575416E+00   0.3941862542E-02   0.1995575423E+00   0.3542548143E-01   0.3449936337E-03   0.1073114252E-01   0.3532611770E-02
   0.9539410440E+00   0.4053644976E+00   0.1970528017E-02   0.1995572484E+00   0.1970528023E-02   0.1995572491E+00   0.1713988858E-01   0.1880728859E-02   0.5706185233E-02   0.7974707162E-02
   0.6333280620E-01   0.1504234106E-01  -0.2631501882E-06   0.1271170430E-02  -0.2631501897E-06   0.1271170435E-02   0.7417704009E-04  -0.1379560163E-02  -0.3916149368E-03   0.1262698139E-01
   0.0000000000E+00   0.1245737675E-01   0.0000000000E+00  -0.2131172414E-04   0.0000000000E+00  -0.2131172423E-04  -0.1330154620E-03   0.5376388819E-02   0.1573012007E-02   0.1165605176E-01
   0.1266663294E+00   0.2259606079E-01  -0.1678070640E-06   0.5048030284E-02  -0.1678070651E-06   0.5048030304E-02   0.9694569525E-05   0.3237784720E-03   0.1000419125E-03   0.1256004860E-01
   0.1899995842E+00   0.3476630836E-01  -0.2068785509E-06   0.1113315406E-01  -0.2068785523E-06   0.1113315410E-01  -0.3799883137E-04  -0.5503466419E-04  -0.2791004867E-04   0.1240709410E-01
   0.2533329503E+00   0.5119757882E-01  -0.1898323608E-06   0.1934878927E-01  -0.1898323621E-06   0.1934878935E-01   0.3687561783E-04  -0.6357645671E-05   0.9155391648E-05   0.1258459312E-01
   0.3166662693E+00   0.7153463521E-01  -0.1968745055E-06   0.2951731745E-01  -0.1968745070E-06   0.2951731756E-01  -0.2689015804E-04   0.1534020045E-04  -0.3464987279E-05   0.1243196828E-01
   0.3799996054E+00   0.9542264329E-01  -0.1947912893E-06   0.4146132147E-01  -0.1947912908E-06   0.4146132162E-01   0.1652888100E-04  -0.1253328268E-04   0.1198679495E-05   0.1255211640E-01
   0.4433329391E+00   0.1225062925E+00  -0.1944480533E-06   0.5500314603E-01  -0.1944480549E-06   0.5500314623E-01  -0.8046812902E-05   0.8045380705E-05  -0.4296591461E-09   0.1246126961E-01
   0.5066662685E+00   0.1524306876E+00  -0.1957274795E-06   0.6996534357E-01  -0.1957274812E-06   0.6996534383E-01   0.1415189819E-05  -0.4127560501E-05  -0.8137112047E-06   0.1252783578E-01
   0.5699996039E+00   0.1848405951E+00  -0.1945687484E-06   0.8617029728E-01  -0.1945687502E-06   0.8617029759E-01   0.3808544092E-05   0.1609708011E-05   0.1625475631E-05   0.1248098356E-01
   0.6333329358E+00   0.2193810520E+00  -0.1945954900E-06   0.1034405257E+00  -0.1945954919E-06   0.1034405261E+00  -0.7402899308E-05  -0.3082970129E-05  -0.3145760831E-05   0.1251201873E-01
   0.6966662637E+00   0.2556968883E+00  -0.1971691107E-06   0.1215984438E+00  -0.1971691127E-06   0.1215984443E+00   0.7210336119E-05   0.1933763788E-04   0.7964392198E-05   0.1249276812E-01
   0.7599996123E+00   0.2934330460E+00  -0.1888274451E-06   0.1404665227E+00  -0.1888274475E-06   0.1404665231E+00   0.2622595517E-05  -0.9192451346E-04  -0.2679057538E-04   0.1250655867E-01
   0.8233328992E+00   0.3322346120E+00  -0.2118909895E-06   0.1598673056E+00  -0.2118909924E-06   0.1598673062E+00  -0.3037831878E-04   0.3764248191E-03   0.1038139501E-03   0.1248521134E-01
   0.8866663667E+00   0.3717456328E+00  -0.1446560814E-06   0.1796228160E+00  -0.1446560845E-06   0.1796228166E+00   0.5805108934E-04  -0.1450719352E-02  -0.4178004787E-03   0.1253802816E-01
   0.9499992671E+00   0.4116144901E+00  -0.3604471745E-06   0.1995572446E+00  -0.3604471775E-06   0.1995572453E+00   0.1387910276E-03   0.5457008639E-02   0.1678739900E-02   0.1244589788E-01
   0.6282612730E-01   0.2130272046E-01  -0.2536025980E-03   0.1276359880E-02  -0.2536025990E-03   0.1276359885E-02  -0.8562022826E+00  -0.5670605195E-03  -0.2570308029E+00   0.8020701726E-02
   0.0000000000E+00   0.1871847050E-01   0.0000000000E+00  -0.1576510208E-04   0.0000000000E+00  -0.1576510214E-04  -0.8934093535E+00   0.1947578639E-02  -0.2674385325E+00   0.7831873011E-02
   0.1256859002E+00   0.2885569480E-01  -0.4903823925E-03   0.5052847039E-02  -0.4903823944E-03   0.5052847059E-02  -0.7891740919E+00   0.1897702433E-03  -0.2366952965E+00   0.8020967072E-02
   0.1885815555E+00   0.4102519876E-01  -0.7092212724E-03   0.1113759901E-01  -0.7092212751E-03   0.1113759905E-01  -0.7298030803E+00  -0.8261803986E-04  -0.2189657095E+00   0.7974066478E-02
   0.2515116753E+00   0.5745573273E-01  -0.9108273518E-03   0.1935286598E-01  -0.9108273552E-03   0.1935286605E-01  -0.6688530549E+00   0.4870078118E-04  -0.2006413062E+00   0.8020961678E-02
   0.3144772529E+00   0.7779204340E-01  -0.1094705040E-02   0.2952102129E-01  -0.1094705044E-02   0.2952102141E-01  -0.6078994049E+00  -0.3522183534E-04  -0.1823803880E+00   0.7985027354E-02
   0.3774775658E+00   0.1016793149E+00  -0.1261214602E-02   0.4146465702E-01  -0.1261214606E-02   0.4146465717E-01  -0.5472954448E+00   0.2805939848E-04  -0.1641802156E+00   0.8010355568E-02
   0.4405131429E+00   0.1287622191E+00  -0.1410092524E-02   0.5500610909E-01  -0.1410092529E-02   0.5500610929E-01  -0.4863200296E+00  -0.2338149442E-04  -0.1459030233E+00   0.7992585044E-02
   0.5035836019E+00   0.1586858768E+00  -0.1541529056E-02   0.6996793792E-01  -0.1541529062E-02   0.6996793817E-01  -0.4256643833E+00   0.1986261631E-04  -0.1276933562E+00   0.8005928344E-02
   0.5666892099E+00   0.1910950401E+00  -0.1655391523E-02   0.8617251956E-01  -0.1655391529E-02   0.8617251987E-01  -0.3647523462E+00  -0.1595257349E-04  -0.1094304896E+00   0.7994384579E-02
   0.6298297945E+00   0.2256347583E+00  -0.1751765235E-02   0.1034423786E+00  -0.1751765241E-02   0.1034423790E+00  -0.3040181697E+00   0.6680052915E-05  -0.9120344689E-01   0.8006156310E-02
   0.6930054424E+00   0.2619498545E+00  -0.1830607812E-02   0.1215999267E+00  -0.1830607817E-02   0.1215999271E+00  -0.2432659914E+00   0.2643065929E-04  -0.7297186822E-01   0.7993078932E-02