 VARIABLES = X,Y
 ZONE, T="zone1" F=FEPOINT, I=    4 J=    1
   0.0000000000E+00   0.0000000000E+00
   0.2000000000E+01   0.0000000000E+00
   0.2000000000E+01   0.2000000000E+01
   0.0000000000E+00   0.2000000000E+01
           1           2           3           4
