 VARIABLES = X,Y
 ZONE, T="zone1" F=FEPOINT, I=   80 J=   60
   0.0000000000E+00   0.0000000000E+00
   0.6333333250E-01   0.0000000000E+00
   0.6333333250E-01   0.6250000090E-02
   0.0000000000E+00   0.6250000090E-02
   0.1266666650E+00   0.0000000000E+00
   0.1266666650E+00   0.6250000090E-02
   0.1899999980E+00   0.0000000000E+00
   0.1899999980E+00   0.6250000090E-02
   0.2533333300E+00   0.0000000000E+00
   0.2533333300E+00   0.6250000090E-02
   0.3166666630E+00   0.0000000000E+00
   0.3166666630E+00   0.6250000090E-02
   0.3799999950E+00   0.0000000000E+00
   0.3799999950E+00   0.6250000090E-02
   0.4433333280E+00   0.0000000000E+00
   0.4433333280E+00   0.6250000090E-02
   0.5066666600E+00   0.0000000000E+00
   0.5066666600E+00   0.6250000090E-02
   0.5699999930E+00   0.0000000000E+00
   0.5699999930E+00   0.6250000090E-02
   0.6333333250E+00   0.0000000000E+00
   0.6333333250E+00   0.6250000090E-02
   0.6966666580E+00   0.0000000000E+00
   0.6966666580E+00   0.6250000090E-02
   0.7599999900E+00   0.0000000000E+00
   0.7599999900E+00   0.6250000090E-02
   0.8233333230E+00   0.0000000000E+00
   0.8233333230E+00   0.6250000090E-02
   0.8866666560E+00   0.0000000000E+00
   0.8866666560E+00   0.6250000090E-02
   0.9499999880E+00   0.0000000000E+00
   0.9499999880E+00   0.6250000090E-02
   0.6333333250E-01   0.1250000020E-01
   0.0000000000E+00   0.1250000020E-01
   0.1266666650E+00   0.1250000020E-01
   0.1899999980E+00   0.1250000020E-01
   0.2533333300E+00   0.1250000020E-01
   0.3166666630E+00   0.1250000020E-01
   0.3799999950E+00   0.1250000020E-01
   0.4433333280E+00   0.1250000020E-01
   0.5066666600E+00   0.1250000020E-01
   0.5699999930E+00   0.1250000020E-01
   0.6333333250E+00   0.1250000020E-01
   0.6966666580E+00   0.1250000020E-01
   0.7599999900E+00   0.1250000020E-01
   0.8233333230E+00   0.1250000020E-01
   0.8866666560E+00   0.1250000020E-01
   0.9499999880E+00   0.1250000020E-01
   0.6333333250E-01   0.1875000070E-01
   0.0000000000E+00   0.1875000070E-01
   0.1266666650E+00   0.1875000070E-01
   0.1899999980E+00   0.1875000070E-01
   0.2533333300E+00   0.1875000070E-01
   0.3166666630E+00   0.1875000070E-01
   0.3799999950E+00   0.1875000070E-01
   0.4433333280E+00   0.1875000070E-01
   0.5066666600E+00   0.1875000070E-01
   0.5699999930E+00   0.1875000070E-01
   0.6333333250E+00   0.1875000070E-01
   0.6966666580E+00   0.1875000070E-01
   0.7599999900E+00   0.1875000070E-01
   0.8233333230E+00   0.1875000070E-01
   0.8866666560E+00   0.1875000070E-01
   0.9499999880E+00   0.1875000070E-01
   0.6333333250E-01   0.2500000040E-01
   0.0000000000E+00   0.2500000040E-01
   0.1266666650E+00   0.2500000040E-01
   0.1899999980E+00   0.2500000040E-01
   0.2533333300E+00   0.2500000040E-01
   0.3166666630E+00   0.2500000040E-01
   0.3799999950E+00   0.2500000040E-01
   0.4433333280E+00   0.2500000040E-01
   0.5066666600E+00   0.2500000040E-01
   0.5699999930E+00   0.2500000040E-01
   0.6333333250E+00   0.2500000040E-01
   0.6966666580E+00   0.2500000040E-01
   0.7599999900E+00   0.2500000040E-01
   0.8233333230E+00   0.2500000040E-01
   0.8866666560E+00   0.2500000040E-01
   0.9499999880E+00   0.2500000040E-01
           1           2           3           4
           2           5           6           3
           5           7           8           6
           7           9          10           8
           9          11          12          10
          11          13          14          12
          13          15          16          14
          15          17          18          16
          17          19          20          18
          19          21          22          20
          21          23          24          22
          23          25          26          24
          25          27          28          26
          27          29          30          28
          29          31          32          30
           4           3          33          34
           3           6          35          33
           6           8          36          35
           8          10          37          36
          10          12          38          37
          12          14          39          38
          14          16          40          39
          16          18          41          40
          18          20          42          41
          20          22          43          42
          22          24          44          43
          24          26          45          44
          26          28          46          45
          28          30          47          46
          30          32          48          47
          34          33          49          50
          33          35          51          49
          35          36          52          51
          36          37          53          52
          37          38          54          53
          38          39          55          54
          39          40          56          55
          40          41          57          56
          41          42          58          57
          42          43          59          58
          43          44          60          59
          44          45          61          60
          45          46          62          61
          46          47          63          62
          47          48          64          63
          50          49          65          66
          49          51          67          65
          51          52          68          67
          52          53          69          68
          53          54          70          69
          54          55          71          70
          55          56          72          71
          56          57          73          72
          57          58          74          73
          58          59          75          74
          59          60          76          75
          60          61          77          76
          61          62          78          77
          62          63          79          78
          63          64          80          79
